 Gaussian 16, Revision B.01,
 Gaussian 16:  ES64L-G16RevB.01 20-Dec-2017

 -----------------------------
 #P PM6=(print,zero,input) opt
 -----------------------------

 ---------
 the title
 ---------
 Symbolic Z-matrix:
 Charge =  0 Multiplicity = 1

 SCF Done:  E(RPM6) =  0.159923363531     A.U. after   13 cycles
 SCF Done:  E(RPM6) =  0.159801272051     A.U. after   10 cycles
 SCF Done:  E(RPM6) =  0.159800304880     A.U. after    9 cycles
 Optimization completed.
    -- Stationary point found.

                         Standard orientation:
 ---------------------------------------------------------------------
 Center     Atomic      Atomic             Coordinates (Angstroms)
 Number     Number       Type             X           Y           Z
 ---------------------------------------------------------------------
      1          6           0        0.000000    0.000000    0.933669
      2          6           0        0.000000    0.662700   -0.323245
      3          6           0        0.000000   -0.662700   -0.323245
      4          1           0        0.000000    1.595433   -0.861539
      5          1           0        0.000000   -1.595433   -0.861539
 ---------------------------------------------------------------------

 The electronic state is 1-A1.
 Alpha  occ. eigenvalues --   -0.96469  -0.80803  -0.75843  -0.57987  -0.57585
 Alpha  occ. eigenvalues --   -0.48052  -0.32882
 Alpha virt. eigenvalues --    0.00232   0.04479   0.05923   0.06658   0.18715
 Alpha virt. eigenvalues --    0.19148   0.23505

 Mulliken charges:
               1
     1  C   -0.287478
     2  C    0.084392
     3  C    0.084392
     4  H    0.059347
     5  H    0.059347
 Sum of Mulliken charges =   0.00000

 Dipole moment (field-independent basis, Debye):
    X=              0.0000    Y=              0.0000    Z=             -4.5180  Tot=              4.5180
 N-N= 3.548732865959D+01 E-N=-3.803772909538D+01  KE=-2.362490626596D+01
 Symmetry A1   KE=-1.346616664696D+01
 Symmetry A2   KE= 7.648412246342D-31
 Symmetry B1   KE=-3.830754761511D+00
 Symmetry B2   KE=-6.327984857486D+00
 Leave Link  601 at Wed Sep 29 12:36:14 2021, MaxMem=   131072000 cpu:               0.0 elap:               0.0
 (Enter /home/qc/Bg16_b01_x86_64_avx2/g16/l9999.exe)
 1\1\GINC-NODE3\FOpt\RPM6\ZDO\C3H2\BRENT\29-Sep-2021\0\\#P PM6=(print,z
 ero,input) opt\\the title\\0,1\C,0.,0.,-0.8885110833\C,0.,0.6627000673
 ,0.3684031445\C,0.,-0.6627000673,0.3684031445\H,0.,1.5954328289,0.9066

 Normal termination of Gaussian 16 at Wed Sep 29 12:36:14 2021.
