 Gaussian 16, Revision B.01,
 Gaussian 16:  ES64L-G16RevB.01 20-Dec-2017

 ----------------------------------
 #P PM6=(print,zero,input) opt freq
 ----------------------------------

 ---------
 the title
 ---------
 Symbolic Z-matrix:
 Charge = -1 Multiplicity = 1

 SCF Done:  E(RPM6) = -0.129539456170     A.U. after   10 cycles
 SCF Done:  E(RPM6) = -0.168062548154     A.U. after    9 cycles
 SCF Done:  E(RPM6) = -0.169924708546     A.U. after    8 cycles
 SCF Done:  E(RPM6) = -0.169939107331     A.U. after    7 cycles
 Optimization completed.
    -- Stationary point found.
 Normal termination of Gaussian 16 at Thu Sep 30 12:28:15 2021.

 -------------------------------------------------------------
 #P Geom=AllCheck Guess=TCheck SCRF=Check GenChk RPM6/ZDO Freq
 -------------------------------------------------------------

 Structure from the checkpoint file:  "//scratch/brent/opt_2021-09-30_12_28_02/Gau-23259.chk"
 ---------
 the title
 ---------
 Charge = -1 Multiplicity = 1

                         Standard orientation:
 ---------------------------------------------------------------------
 Center     Atomic      Atomic             Coordinates (Angstroms)
 Number     Number       Type             X           Y           Z
 ---------------------------------------------------------------------
      1          6           0        0.000000    1.241604    0.000000
      2          6           0        1.180836    0.383677    0.000000
      3          6           0        0.729797   -1.004479    0.000000
      4          6           0       -0.729797   -1.004479    0.000000
      5          6           0       -1.180836    0.383677    0.000000
      6          1           0       -2.209405    0.717879    0.000000
      7          1           0       -1.365487   -1.879432    0.000000
      8          1           0        1.365487   -1.879432    0.000000
      9          1           0        2.209405    0.717879    0.000000
     10          1           0        0.000000    2.323105    0.000000
 ---------------------------------------------------------------------

 SCF Done:  E(RPM6) = -0.169939107331     A.U. after    2 cycles

 The electronic state is 1-A1'.
 Alpha  occ. eigenvalues --   -0.67306  -0.57529  -0.57529  -0.51568  -0.51568
 Alpha  occ. eigenvalues --   -0.51135  -0.32237  -0.28488  -0.28488  -0.28341
 Alpha  occ. eigenvalues --   -0.28341  -0.06377  -0.06377
 Alpha virt. eigenvalues --    0.28729   0.28729   0.37019   0.37019   0.37272
 Alpha virt. eigenvalues --    0.37272   0.38963   0.48112   0.48112   0.50983
 Alpha virt. eigenvalues --    0.54824   0.54824

 Mulliken charges:
               1
     1  C   -0.136808
     2  C   -0.136808
     3  C   -0.136808
     4  C   -0.136808
     5  C   -0.136808
     6  H   -0.063192
     7  H   -0.063192
     8  H   -0.063192
     9  H   -0.063192
    10  H   -0.063192
 Sum of Mulliken charges =  -1.00000

 Dipole moment (field-independent basis, Debye):
    X=              0.0000    Y=              0.0000    Z=              0.0000  Tot=              0.0000
 N-N= 8.766720835082D+01 E-N=-1.236048139489D+02  KE=-4.216380904984D+01
 Symmetry A1   KE=-1.909632739163D+01
 Symmetry A2   KE=-3.443207053167D+00
 Symmetry B1   KE=-1.230893089685D+01
 Symmetry B2   KE=-7.315343708191D+00
  Exact polarizability:  43.016   0.000  43.016   0.000   0.000  12.956
 Approx polarizability:  42.685   0.000  42.685   0.000   0.000   7.648
 Leave Link  601 at Thu Sep 30 12:28:19 2021, MaxMem=   131072000 cpu:               0.0 elap:               0.0
 (Enter /home/qc/Bg16_b01_x86_64_avx2/g16/l701.exe)
 ... and contract with generalized density number  0.

 ******    2 imaginary frequencies (negative Signs) ******

                      1                      2                      3
                     E2"                    E2"                    E1"
 Frequencies --   -564.2774              -564.2774               112.7008
 Red. masses --      3.1572                 3.1572                 1.2727
 Frc consts  --      0.5923                 0.5923                 0.0095
 IR Inten    --      0.0000                 0.0000                 0.0000

                      4                      5                      6
                     E1"                    E2"                    E2"
 Frequencies --    112.7008               662.7349               662.7349
 Red. masses --      1.2727                 1.3178                 1.3178
 Frc consts  --      0.0095                 0.3410                 0.3410
 IR Inten    --      0.0000                 0.0000                 0.0000

                      7                      8                      9
                     A2"                    E2'                    E2'
 Frequencies --    665.5238               743.1793               743.1793
 Red. masses --      1.0848                 3.7476                 3.7476
 Frc consts  --      0.2831                 1.2195                 1.2195
 IR Inten    --     36.6573                 0.0000                 0.0000

                     10                     11                     12
                     E2'                    E2'                    E1'
 Frequencies --    893.4540               893.4540               904.5828
 Red. masses --      1.8110                 1.8110                 1.4603
 Frc consts  --      0.8517                 0.8517                 0.7040
 IR Inten    --      0.0000                 0.0000                 5.1267

                     13                     14                     15
                     E1'                    E2'                    E2'
 Frequencies --    904.5829              1032.6991              1032.6991
 Red. masses --      1.4603                 2.4556                 2.4556
 Frc consts  --      0.7040                 1.5430                 1.5430
 IR Inten    --      5.1267                 0.0000                 0.0000

                     16                     17                     18
                     A2'                    A1'                    E1'
 Frequencies --   1075.6897              1141.1836              1268.5148
 Red. masses --      1.2727                 5.8181                 2.5311
 Frc consts  --      0.8677                 4.4642                 2.3996
 IR Inten    --      0.0000                 0.0000                73.2235

                     19                     20                     21
                     E1'                    E2'                    E2'
 Frequencies --   1268.5148              3210.8590              3210.8590
 Red. masses --      2.5311                 1.0812                 1.0812
 Frc consts  --      2.3996                 6.5676                 6.5676
 IR Inten    --     73.2234                 0.0000                 0.0000

                     22                     23                     24
                     E1'                    E1'                    A1'
 Frequencies --   3212.4866              3212.4866              3226.9641
 Red. masses --      1.0899                 1.0899                 1.1066
 Frc consts  --      6.6272                 6.6272                 6.7892
 IR Inten    --     84.5495                84.5495                 0.0000

 - Thermochemistry -
 -------------------
 Temperature   298.150 Kelvin.  Pressure   1.00000 Atm.
 Atom     1 has atomic number  6 and mass  12.00000

 Molecular mass:    65.03913 amu.
 Principal axes and moments of inertia in atomic units:
                           1         2         3
     Eigenvalues --   213.71059 213.71059 427.42118
           X            0.93445   0.35610   0.00000
           Y           -0.35610   0.93445   0.00000
           Z            0.00000   0.00000   1.00000
 This molecule is an oblate symmetric top.
 Rotational symmetry number 10.
 Rotational temperatures (Kelvin)      0.40529     0.40529     0.20264
 Rotational constants (GHZ):           8.44479     8.44479     4.22240
    2 imaginary frequencies ignored.
 Zero-point vibrational energy     180587.0 (Joules/Mol)
                                   43.16132 (Kcal/Mol)
 Warning -- explicit consideration of   2 degrees of freedom as
           vibrations may cause significant error
 Vibrational temperatures:    162.15   162.15   953.53   953.53   957.54
          (Kelvin)           1069.27  1069.27  1285.48  1285.48  1301.49
                             1301.49  1485.82  1485.82  1547.68  1641.91
                             1825.11  1825.11  4619.71  4619.71  4622.05
                             4622.05  4642.88

 Zero-point correction=                           0.068782 (Hartree/Particle)
 Thermal correction to Energy=                    0.073969
 Thermal correction to Enthalpy=                  0.074913
 Thermal correction to Gibbs Free Energy=         0.042951
 Sum of electronic and zero-point Energies=             -0.101157
 Sum of electronic and thermal Energies=                -0.095970
 Sum of electronic and thermal Enthalpies=              -0.095026
 Sum of electronic and thermal Free Energies=           -0.126988

                     E (Thermal)             CV                S
                      KCal/Mol        Cal/Mol-Kelvin    Cal/Mol-Kelvin
 Total                   46.416             17.606             67.269
 Electronic               0.000              0.000              0.000
 Translational            0.889              2.981             38.436
 Rotational               0.889              2.981             19.907
 Vibrational             44.639             11.645              8.927
 Vibration     1          0.607              1.939              3.222
 Vibration     2          0.607              1.939              3.222

 Optimization completed.
    -- Stationary point found.
 Normal termination of Gaussian 16 at Thu Sep 30 12:28:19 2021.
