 Gaussian 16, Revision B.01,
 Gaussian 16:  ES64L-G16RevB.01 20-Dec-2017

 -----------------------------
 #P PM6=(print,zero,input) opt
 -----------------------------

 ---------
 the title
 ---------
 Symbolic Z-matrix:
 Charge =  0 Multiplicity = 1

 SCF Done:  E(RPM6) =  0.159800280881     A.U. after   13 cycles

 The electronic state is 1-A1.
 Alpha  occ. eigenvalues --   -0.96463  -0.80797  -0.75848  -0.57982  -0.57576
 Alpha  occ. eigenvalues --   -0.48055  -0.32883
 Alpha virt. eigenvalues --    0.00234   0.04477   0.05921   0.06657   0.18712
 Alpha virt. eigenvalues --    0.19150   0.23507

 Mulliken charges:
               1
     1  C   -0.287423
     2  C    0.084384
     3  C    0.084384
     4  H    0.059328
     5  H    0.059328
 Sum of Mulliken charges =   0.00000

 Dipole moment (field-independent basis, Debye):
    X=              0.0000    Y=              0.0000    Z=             -4.5181  Tot=              4.5181
 N-N= 3.548642377421D+01 E-N=-3.803650371050D+01  KE=-2.362466410784D+01
 Symmetry A1   KE=-1.346610579039D+01
 Symmetry A2   KE= 8.722513896728D-17
 Symmetry B1   KE=-3.830684091096D+00
 Symmetry B2   KE=-6.327874226348D+00
 Leave Link  601 at Wed Sep 29 16:03:49 2021, MaxMem=   131072000 cpu:               0.0 elap:               0.0
 (Enter /home/qc/Bg16_b01_x86_64_avx2/g16/l701.exe)
 ... and contract with generalized density number  0.
 Compute integral first derivatives.
 Leave Link  701 at Wed Sep 29 16:03:50 2021, MaxMem=   131072000 cpu:               0.1 elap:               0.1

 Optimization completed.
    -- Stationary point found.

                         Standard orientation:
 ---------------------------------------------------------------------
 Center     Atomic      Atomic             Coordinates (Angstroms)
 Number     Number       Type             X           Y           Z
 ---------------------------------------------------------------------
      1          6           0        0.000000    0.000000    0.933769
      2          6           0        0.000000    0.662759   -0.323230
      3          6           0        0.000000   -0.662759   -0.323230
      4          1           0        0.000000    1.595272   -0.861925
      5          1           0        0.000000   -1.595272   -0.861925
 ---------------------------------------------------------------------

 Normal termination of Gaussian 16 at Wed Sep 29 16:03:50 2021.
